83
Lattice="12.049483852 0.014100787 -2.826267705 -3.571931226 11.145541253 -3.653909468 0.023363077 0.084157872 12.436688049" Properties=species:S:1:pos:R:3:forces:R:3 energy=-357.50145821 pbc="T T T"
Li       9.39105000       5.66577000      -3.21393000       0.37784300       0.10696600      -0.12411700
Li       2.31908000       3.49826000      -0.93600000       0.41387700       0.40453600      -0.35883400
Li       6.95267000       9.39948000      -2.58630000      -0.13209400      -0.10783600       0.08774800
Li       0.56521000       9.54511000      -0.90197000       0.35791400      -0.27877000      -0.17532900
Li       2.58572000       0.39538000      -0.47213000       0.14725600       0.28704700      -0.72500500
Li       1.71775000       0.04115000       4.04703000      -0.21548900      -0.04584200       0.23857300
Li       4.14161000       7.03936000      -0.92885000       0.17129700      -0.51136200      -0.29009300
Li       0.30740000       8.75203000       7.46084000       0.27648700      -0.22268000      -0.18913600
Li       5.02103000      11.09325000      -0.67086000      -0.29791300      -0.21884900      -0.13230800
Li       7.99565000       3.39454000      -1.88759000       0.37301800      -0.29919400       0.13214100
Li       5.78027000       3.41072000       1.25457000      -0.30836200      -0.27791500       0.00416500
Li      -0.94500000       7.97803000       2.53182000       0.52276500      -0.09046000       0.06854300
Li       5.63939000       8.20259000       2.12617000      -0.19027700      -0.18248800      -0.13255300
Li       3.04503000       3.53026000       3.73967000       0.21047300       0.03870000       0.08677900
Li       9.57276000       3.75991000       2.72279000      -0.41333900      -0.02462300      -0.36414300
Li       2.68346000       7.46852000       4.88479000       0.43146600       0.41503700      -0.11932000
Li       9.02916000       7.87865000       3.11742000       0.10415200      -0.22156400       0.67664000
Li       2.59789000       6.20644000       8.81648000       0.06370900       0.09857200      -0.23429400
Li       8.57968000       1.44944000       6.44940000      -0.51420700       0.52906900      -0.22530500
Li       8.53232000      10.81289000       3.62274000       0.29863100       0.17043700       0.05979300
Li       2.67834000      11.13898000       4.94289000      -0.07427000      -0.59803800       0.02968100
Li       0.54995000       1.77130000       1.71080000       0.01547000       0.01215300       0.05673100
Li       5.45955000      10.90614000      -5.48333000       0.36076300       0.48841800      -0.04246400
Li      10.62866000       3.89480000       5.33953000       0.09333300       0.07074500       0.71037600
Li       6.39946000       8.07075000       6.94334000      -0.52567200      -0.75436500      -0.34402600
Li       2.34960000       1.18271000       7.83471000      -0.07268300       0.12856200       0.34308400
Li       5.11187000       3.67919000       7.27338000       0.05612500       0.22213700       0.14118300
P       -2.31688000       9.21570000      -2.51865000      -0.65358900       0.15060400      -0.58804700
P        3.92391000       9.10357000      -3.74724000      -0.67791400      -0.46719000      -1.00127600
P        1.39463000       5.60338000       0.77140000      -1.09982600       1.80720300       0.11136500
P        7.23025000       5.53390000      -0.10083000      -0.24768200      -0.05589600       0.79100500
P        2.57893000       9.00354000       1.60766000      -0.45506400      -0.93052200       0.72157900
P        8.41518000       8.90806000       0.15517000      -1.58571100      -0.56608600      -0.84149700
P        0.49628000       2.47015000       5.63194000       0.82182100      -1.68373000      -0.90831300
P        6.37885000       2.26861000       4.25046000      -0.46891600      -0.21732500       0.36806200
P        0.82271000       5.87752000       6.15677000       0.24401500       1.11987400       0.23694800
P        7.20273000       5.88060000       4.74489000       0.91597600      -0.42112600       0.09912600
P        4.57705000       1.96367000       9.89633000      -1.72178300       0.79921100       0.26101400
P       10.69174000       1.91432000       8.66572000       0.37549700       0.74300900      -0.08707500
S        1.97701000       8.75709000      -3.23231000       0.02000300      -0.05106500       0.09417700
S        7.70287000       9.68129000      -4.89758000       1.48199500       0.10102100      -0.11221100
S       -1.52619000       7.59846000      -1.64189000       0.02708600       0.39490700      -0.20160000
S        5.06503000       7.41677000      -3.43370000      -0.40638000       0.34216700       1.13137200
S        4.36137000       2.23889000      -0.57512000      -0.07950200       0.02734900       0.80906900
S       10.33602000       1.93031000      -1.73364000      -0.38453200       0.03462300      -0.64571600
S        1.81074000       5.98394000      -1.14453000       0.24514100      -0.03503300      -0.02364100
S        7.15601000       5.64281000      -2.07002000       0.50580400       0.12327000      -0.59932800
S       -1.16434000      10.88745000      -1.96289000      -0.36096200       0.16856900       0.86444900
S        4.68624000      10.82327000      -2.93887000       0.29502500      -0.19728900      -0.97303800
S       -0.51650000       5.95931000       1.23228000      -0.84623800      -0.23009800      -0.10405300
S        5.41422000       5.79141000       0.75621000      -0.24957000       0.61003500      -0.06275400
S        2.04806000       3.87390000       1.39003000       0.83259000      -2.04950400       1.17854100
S        7.97670000       3.77314000       0.53816000       0.74952700      -0.46092900       0.11585300
S        3.51947000       9.11582000      -0.20834000      -0.82839800       0.75491400       1.16354900
S        9.24534000       8.72544000      -1.65389000      -0.03087900       0.55546000      -0.65048700
S        5.26543000       1.45093000       2.81183000      -0.33567900       0.40898500      -0.32342900
S       11.59030000       1.41480000       1.36457000      -0.06891700       0.23652600      -0.50925700
S        2.41745000       6.82864000       2.18406000       0.89911600       0.75934600      -0.26493000
S        8.59085000       6.87290000       0.91341000      -0.07613800       0.15679000      -0.34885800
S        0.67583000       9.74792000       1.55312000       0.44442500      -0.16159500       0.10547400
S        6.45322000       9.51695000       0.16402000       1.05467100      -0.92420900       0.22621100
S        2.49565000       1.90366000       5.56774000      -0.10546000       0.59142700      -0.77036300
S        8.34766000       1.92808000       4.00422000       1.12522700       0.37128800       0.31834300
S       -0.02193000       4.39501000       4.98038000      -0.68847000      -0.28171700      -1.24247900
S        6.04294000       4.31704000       3.73623000      -0.78701900       0.39477100      -0.50244000
S       -2.46601000       9.67307000       4.32130000       1.33753100       0.99610400       1.41826100
S        3.66608000       9.36633000       3.43215000      -0.54003700       0.02457000      -1.46461200
S       -0.17812000       1.94149000       7.37409000      -0.63587700       0.20831400       1.59831900
S        5.85753000       1.75318000       6.12401000       0.44614100       0.07351400      -0.15590900
S        0.34012000       7.58365000       5.08907000      -0.19205600      -0.34838000       0.43345600
S        6.51093000       7.77436000       4.36542000       0.64616700      -0.67843400      -0.67996900
S        2.77551000       5.51399000       6.22965000       1.03515700      -0.07139700      -0.45895900
S        9.27091000       5.58164000       4.31631000      -1.27942900       0.75732200      -0.21204900
S        0.19520000      11.19550000       6.01152000       0.66175000       0.48331600      -0.89594100
S        9.87408000       0.17456000       7.81588000       0.44837700       0.21482500       0.65633200
S        0.15165000       5.96343000       8.00381000      -0.38685600      -0.09231200       0.90823400
S        6.84523000       5.56167000       6.65923000      -0.08537400      -0.21562700       1.09201800
S       -1.92495000       9.42235000       7.77205000      -0.77549500      -0.34015900       0.86198700
S        4.05314000       9.20064000       6.56339000      -0.14804500       0.60052800       0.30635800
S        3.23060000       3.36191000       8.88050000       1.14673300      -1.06579000       0.32658300
S        9.63724000       3.50757000       7.82111000       0.08079900      -0.33159000      -0.23114500
S        0.71874000       2.06630000      10.98307000      -1.55232600      -1.10005000       0.06020400
S        6.47475000       2.21171000       9.30139000       0.38259800      -0.17375600      -0.57265600
